+ 2.01995 /NodeList/1/DeviceList/1/$ns3::CsmaNetDevice/TxQueue/Enqueue ns3::EthernetHeader ( length/type=0x806, source=00:00:00:00:00:03, destination=ff:ff:ff:ff:ff:ff) ns3::ArpHeader (request source mac: 00-06-00:00:00:00:00:03 source ipv4: 192.168.2.1 dest ipv4: 192.168.2.4) Payload (size=18) ns3::EthernetTrailer (fcs=0)
- 2.01995 /NodeList/1/DeviceList/1/$ns3::CsmaNetDevice/TxQueue/Dequeue ns3::EthernetHeader ( length/type=0x806, source=00:00:00:00:00:03, destination=ff:ff:ff:ff:ff:ff) ns3::ArpHeader (request source mac: 00-06-00:00:00:00:00:03 source ipv4: 192.168.2.1 dest ipv4: 192.168.2.4) Payload (size=18) ns3::EthernetTrailer (fcs=0)
r 2.01996 /NodeList/2/DeviceList/0/$ns3::CsmaNetDevice/MacRx ns3::EthernetHeader ( length/type=0x806, source=00:00:00:00:00:03, destination=ff:ff:ff:ff:ff:ff) ns3::ArpHeader (request source mac: 00-06-00:00:00:00:00:03 source ipv4: 192.168.2.1 dest ipv4: 192.168.2.4) Payload (size=18) ns3::EthernetTrailer (fcs=0)
r 2.01996 /NodeList/3/DeviceList/0/$ns3::CsmaNetDevice/MacRx ns3::EthernetHeader ( length/type=0x806, source=00:00:00:00:00:03, destination=ff:ff:ff:ff:ff:ff) ns3::ArpHeader (request source mac: 00-06-00:00:00:00:00:03 source ipv4: 192.168.2.1 dest ipv4: 192.168.2.4) Payload (size=18) ns3::EthernetTrailer (fcs=0)
r 2.01996 /NodeList/4/DeviceList/0/$ns3::CsmaNetDevice/MacRx ns3::EthernetHeader ( length/type=0x806, source=00:00:00:00:00:03, destination=ff:ff:ff:ff:ff:ff) ns3::ArpHeader (request source mac: 00-06-00:00:00:00:00:03 source ipv4: 192.168.2.1 dest ipv4: 192.168.2.4) Payload (size=18) ns3::EthernetTrailer (fcs=0)
+ 2.01996 /NodeList/4/DeviceList/0/$ns3::CsmaNetDevice/TxQueue/Enqueue ns3::EthernetHeader ( length/type=0x806, source=00:00:00:00:00:06, destination=00:00:00:00:00:03) ns3::ArpHeader (reply source mac: 00-06-00:00:00:00:00:06 source ipv4: 192.168.2.4 dest mac: 00-06-00:00:00:00:00:03 dest ipv4: 192.168.2.1) Payload (size=18) ns3::EthernetTrailer (fcs=0)
- 2.01996 /NodeList/4/DeviceList/0/$ns3::CsmaNetDevice/TxQueue/Dequeue ns3::EthernetHeader ( length/type=0x806, source=00:00:00:00:00:06, destination=00:00:00:00:00:03) ns3::ArpHeader (reply source mac: 00-06-00:00:00:00:00:06 source ipv4: 192.168.2.4 dest mac: 00-06-00:00:00:00:00:03 dest ipv4: 192.168.2.1) Payload (size=18) ns3::EthernetTrailer (fcs=0)
r 2.01998 /NodeList/1/DeviceList/1/$ns3::CsmaNetDevice/MacRx ns3::EthernetHeader ( length/type=0x806, source=00:00:00:00:00:06, destination=00:00:00:00:00:03) ns3::ArpHeader (reply source mac: 00-06-00:00:00:00:00:06 source ipv4: 192.168.2.4 dest mac: 00-06-00:00:00:00:00:03 dest ipv4: 192.168.2.1) Payload (size=18) ns3::EthernetTrailer (fcs=0)
+ 2.01998 /NodeList/1/DeviceList/1/$ns3::CsmaNetDevice/TxQueue/Enqueue ns3::EthernetHeader ( length/type=0x800, source=00:00:00:00:00:03, destination=00:00:00:00:00:06) ns3::Ipv4Header (tos 0x0 DSCP Default ECN Not-ECT ttl 62 id 0 protocol 17 offset (bytes) 0 flags [MF] length: 1500 192.168.3.3 > 192.168.2.4) ns3::UdpHeader (length: 2056 49153 > 3456) Payload Fragment [0:1472] ns3::EthernetTrailer (fcs=0)
- 2.01998 /NodeList/1/DeviceList/1/$ns3::CsmaNetDevice/TxQueue/Dequeue ns3::EthernetHeader ( length/type=0x800, source=00:00:00:00:00:03, destination=00:00:00:00:00:06) ns3::Ipv4Header (tos 0x0 DSCP Default ECN Not-ECT ttl 62 id 0 protocol 17 offset (bytes) 0 flags [MF] length: 1500 192.168.3.3 > 192.168.2.4) ns3::UdpHeader (length: 2056 49153 > 3456) Payload Fragment [0:1472] ns3::EthernetTrailer (fcs=0)
+ 2.01998 /NodeList/1/DeviceList/1/$ns3::CsmaNetDevice/TxQueue/Enqueue ns3::EthernetHeader ( length/type=0x800, source=00:00:00:00:00:03, destination=00:00:00:00:00:06) ns3::Ipv4Header (tos 0x0 DSCP Default ECN Not-ECT ttl 62 id 0 protocol 17 offset (bytes) 1480 flags [none] length: 596 192.168.3.3 > 192.168.2.4) Payload Fragment [1472:2048] ns3::EthernetTrailer (fcs=0)
- 2.0201 /NodeList/1/DeviceList/1/$ns3::CsmaNetDevice/TxQueue/Dequeue ns3::EthernetHeader ( length/type=0x800, source=00:00:00:00:00:03, destination=00:00:00:00:00:06) ns3::Ipv4Header (tos 0x0 DSCP Default ECN Not-ECT ttl 62 id 0 protocol 17 offset (bytes) 1480 flags [none] length: 596 192.168.3.3 > 192.168.2.4) Payload Fragment [1472:2048] ns3::EthernetTrailer (fcs=0)
r 2.02011 /NodeList/4/DeviceList/0/$ns3::CsmaNetDevice/MacRx ns3::EthernetHeader ( length/type=0x800, source=00:00:00:00:00:03, destination=00:00:00:00:00:06) ns3::Ipv4Header (tos 0x0 DSCP Default ECN Not-ECT ttl 62 id 0 protocol 17 offset (bytes) 0 flags [MF] length: 1500 192.168.3.3 > 192.168.2.4) ns3::UdpHeader (length: 2056 49153 > 3456) Payload Fragment [0:1472] ns3::EthernetTrailer (fcs=0)
r 2.02017 /NodeList/4/DeviceList/0/$ns3::CsmaNetDevice/MacRx ns3::EthernetHeader ( length/type=0x800, source=00:00:00:00:00:03, destination=00:00:00:00:00:06) ns3::Ipv4Header (tos 0x0 DSCP Default ECN Not-ECT ttl 62 id 0 protocol 17 offset (bytes) 1480 flags [none] length: 596 192.168.3.3 > 192.168.2.4) Payload Fragment [1472:2048] ns3::EthernetTrailer (fcs=0)
+ 2.02517 /NodeList/4/DeviceList/0/$ns3::CsmaNetDevice/TxQueue/Enqueue ns3::EthernetHeader ( length/type=0x806, source=00:00:00:00:00:06, destination=ff:ff:ff:ff:ff:ff) ns3::ArpHeader (request source mac: 00-06-00:00:00:00:00:06 source ipv4: 192.168.2.4 dest ipv4: 192.168.2.1) Payload (size=18) ns3::EthernetTrailer (fcs=0)
- 2.02517 /NodeList/4/DeviceList/0/$ns3::CsmaNetDevice/TxQueue/Dequeue ns3::EthernetHeader ( length/type=0x806, source=00:00:00:00:00:06, destination=ff:ff:ff:ff:ff:ff) ns3::ArpHeader (request source mac: 00-06-00:00:00:00:00:06 source ipv4: 192.168.2.4 dest ipv4: 192.168.2.1) Payload (size=18) ns3::EthernetTrailer (fcs=0)
r 2.02518 /NodeList/1/DeviceList/1/$ns3::CsmaNetDevice/MacRx ns3::EthernetHeader ( length/type=0x806, source=00:00:00:00:00:06, destination=ff:ff:ff:ff:ff:ff) ns3::ArpHeader (request source mac: 00-06-00:00:00:00:00:06 source ipv4: 192.168.2.4 dest ipv4: 192.168.2.1) Payload (size=18) ns3::EthernetTrailer (fcs=0)
+ 2.02518 /NodeList/1/DeviceList/1/$ns3::CsmaNetDevice/TxQueue/Enqueue ns3::EthernetHeader ( length/type=0x806, source=00:00:00:00:00:03, destination=00:00:00:00:00:06) ns3::ArpHeader (reply source mac: 00-06-00:00:00:00:00:03 source ipv4: 192.168.2.1 dest mac: 00-06-00:00:00:00:00:06 dest ipv4: 192.168.2.4) Payload (size=18) ns3::EthernetTrailer (fcs=0)
- 2.02518 /NodeList/1/DeviceList/1/$ns3::CsmaNetDevice/TxQueue/Dequeue ns3::EthernetHeader ( length/type=0x806, source=00:00:00:00:00:03, destination=00:00:00:00:00:06) ns3::ArpHeader (reply source mac: 00-06-00:00:00:00:00:03 source ipv4: 192.168.2.1 dest mac: 00-06-00:00:00:00:00:06 dest ipv4: 192.168.2.4) Payload (size=18) ns3::EthernetTrailer (fcs=0)
r 2.02518 /NodeList/2/DeviceList/0/$ns3::CsmaNetDevice/MacRx ns3::EthernetHeader ( length/type=0x806, source=00:00:00:00:00:06, destination=ff:ff:ff:ff:ff:ff) ns3::ArpHeader (request source mac: 00-06-00:00:00:00:00:06 source ipv4: 192.168.2.4 dest ipv4: 192.168.2.1) Payload (size=18) ns3::EthernetTrailer (fcs=0)
r 2.02518 /NodeList/3/DeviceList/0/$ns3::CsmaNetDevice/MacRx ns3::EthernetHeader ( length/type=0x806, source=00:00:00:00:00:06, destination=ff:ff:ff:ff:ff:ff) ns3::ArpHeader (request source mac: 00-06-00:00:00:00:00:06 source ipv4: 192.168.2.4 dest ipv4: 192.168.2.1) Payload (size=18) ns3::EthernetTrailer (fcs=0)
r 2.02519 /NodeList/4/DeviceList/0/$ns3::CsmaNetDevice/MacRx ns3::EthernetHeader ( length/type=0x806, source=00:00:00:00:00:03, destination=00:00:00:00:00:06) ns3::ArpHeader (reply source mac: 00-06-00:00:00:00:00:03 source ipv4: 192.168.2.1 dest mac: 00-06-00:00:00:00:00:06 dest ipv4: 192.168.2.4) Payload (size=18) ns3::EthernetTrailer (fcs=0)
+ 2.02519 /NodeList/4/DeviceList/0/$ns3::CsmaNetDevice/TxQueue/Enqueue ns3::EthernetHeader ( length/type=0x800, source=00:00:00:00:00:06, destination=00:00:00:00:00:03) ns3::Ipv4Header (tos 0x0 DSCP Default ECN Not-ECT ttl 64 id 0 protocol 17 offset (bytes) 0 flags [MF] length: 1500 192.168.2.4 > 192.168.3.3) ns3::UdpHeader (length: 2056 3456 > 49153) Payload Fragment [0:1472] ns3::EthernetTrailer (fcs=0)
- 2.02519 /NodeList/4/DeviceList/0/$ns3::CsmaNetDevice/TxQueue/Dequeue ns3::EthernetHeader ( length/type=0x800, source=00:00:00:00:00:06, destination=00:00:00:00:00:03) ns3::Ipv4Header (tos 0x0 DSCP Default ECN Not-ECT ttl 64 id 0 protocol 17 offset (bytes) 0 flags [MF] length: 1500 192.168.2.4 > 192.168.3.3) ns3::UdpHeader (length: 2056 3456 > 49153) Payload Fragment [0:1472] ns3::EthernetTrailer (fcs=0)
+ 2.02519 /NodeList/4/DeviceList/0/$ns3::CsmaNetDevice/TxQueue/Enqueue ns3::EthernetHeader ( length/type=0x800, source=00:00:00:00:00:06, destination=00:00:00:00:00:03) ns3::Ipv4Header (tos 0x0 DSCP Default ECN Not-ECT ttl 64 id 0 protocol 17 offset (bytes) 1480 flags [none] length: 596 192.168.2.4 > 192.168.3.3) Payload Fragment [1472:2048] ns3::EthernetTrailer (fcs=0)
- 2.02531 /NodeList/4/DeviceList/0/$ns3::CsmaNetDevice/TxQueue/Dequeue ns3::EthernetHeader ( length/type=0x800, source=00:00:00:00:00:06, destination=00:00:00:00:00:03) ns3::Ipv4Header (tos 0x0 DSCP Default ECN Not-ECT ttl 64 id 0 protocol 17 offset (bytes) 1480 flags [none] length: 596 192.168.2.4 > 192.168.3.3) Payload Fragment [1472:2048] ns3::EthernetTrailer (fcs=0)
r 2.02532 /NodeList/1/DeviceList/1/$ns3::CsmaNetDevice/MacRx ns3::EthernetHeader ( length/type=0x800, source=00:00:00:00:00:06, destination=00:00:00:00:00:03) ns3::Ipv4Header (tos 0x0 DSCP Default ECN Not-ECT ttl 64 id 0 protocol 17 offset (bytes) 0 flags [MF] length: 1500 192.168.2.4 > 192.168.3.3) ns3::UdpHeader (length: 2056 3456 > 49153) Payload Fragment [0:1472] ns3::EthernetTrailer (fcs=0)
r 2.02538 /NodeList/1/DeviceList/1/$ns3::CsmaNetDevice/MacRx ns3::EthernetHeader ( length/type=0x800, source=00:00:00:00:00:06, destination=00:00:00:00:00:03) ns3::Ipv4Header (tos 0x0 DSCP Default ECN Not-ECT ttl 64 id 0 protocol 17 offset (bytes) 1480 flags [none] length: 596 192.168.2.4 > 192.168.3.3) Payload Fragment [1472:2048] ns3::EthernetTrailer (fcs=0)
+ 3.00728 /NodeList/1/DeviceList/1/$ns3::CsmaNetDevice/TxQueue/Enqueue ns3::EthernetHeader ( length/type=0x800, source=00:00:00:00:00:03, destination=00:00:00:00:00:06) ns3::Ipv4Header (tos 0x0 DSCP Default ECN Not-ECT ttl 62 id 1 protocol 17 offset (bytes) 0 flags [MF] length: 1500 192.168.3.3 > 192.168.2.4) ns3::UdpHeader (length: 2056 49153 > 3456) Payload Fragment [0:1472] ns3::EthernetTrailer (fcs=0)
- 3.00728 /NodeList/1/DeviceList/1/$ns3::CsmaNetDevice/TxQueue/Dequeue ns3::EthernetHeader ( length/type=0x800, source=00:00:00:00:00:03, destination=00:00:00:00:00:06) ns3::Ipv4Header (tos 0x0 DSCP Default ECN Not-ECT ttl 62 id 1 protocol 17 offset (bytes) 0 flags [MF] length: 1500 192.168.3.3 > 192.168.2.4) ns3::UdpHeader (length: 2056 49153 > 3456) Payload Fragment [0:1472] ns3::EthernetTrailer (fcs=0)
r 3.00741 /NodeList/4/DeviceList/0/$ns3::CsmaNetDevice/MacRx ns3::EthernetHeader ( length/type=0x800, source=00:00:00:00:00:03, destination=00:00:00:00:00:06) ns3::Ipv4Header (tos 0x0 DSCP Default ECN Not-ECT ttl 62 id 1 protocol 17 offset (bytes) 0 flags [MF] length: 1500 192.168.3.3 > 192.168.2.4) ns3::UdpHeader (length: 2056 49153 > 3456) Payload Fragment [0:1472] ns3::EthernetTrailer (fcs=0)
+ 3.00823 /NodeList/1/DeviceList/1/$ns3::CsmaNetDevice/TxQueue/Enqueue ns3::EthernetHeader ( length/type=0x800, source=00:00:00:00:00:03, destination=00:00:00:00:00:06) ns3::Ipv4Header (tos 0x0 DSCP Default ECN Not-ECT ttl 62 id 1 protocol 17 offset (bytes) 1480 flags [none] length: 596 192.168.3.3 > 192.168.2.4) Payload Fragment [1472:2048] ns3::EthernetTrailer (fcs=0)
- 3.00823 /NodeList/1/DeviceList/1/$ns3::CsmaNetDevice/TxQueue/Dequeue ns3::EthernetHeader ( length/type=0x800, source=00:00:00:00:00:03, destination=00:00:00:00:00:06) ns3::Ipv4Header (tos 0x0 DSCP Default ECN Not-ECT ttl 62 id 1 protocol 17 offset (bytes) 1480 flags [none] length: 596 192.168.3.3 > 192.168.2.4) Payload Fragment [1472:2048] ns3::EthernetTrailer (fcs=0)
r 3.00829 /NodeList/4/DeviceList/0/$ns3::CsmaNetDevice/MacRx ns3::EthernetHeader ( length/type=0x800, source=00:00:00:00:00:03, destination=00:00:00:00:00:06) ns3::Ipv4Header (tos 0x0 DSCP Default ECN Not-ECT ttl 62 id 1 protocol 17 offset (bytes) 1480 flags [none] length: 596 192.168.3.3 > 192.168.2.4) Payload Fragment [1472:2048] ns3::EthernetTrailer (fcs=0)
+ 3.00829 /NodeList/4/DeviceList/0/$ns3::CsmaNetDevice/TxQueue/Enqueue ns3::EthernetHeader ( length/type=0x800, source=00:00:00:00:00:06, destination=00:00:00:00:00:03) ns3::Ipv4Header (tos 0x0 DSCP Default ECN Not-ECT ttl 64 id 1 protocol 17 offset (bytes) 0 flags [MF] length: 1500 192.168.2.4 > 192.168.3.3) ns3::UdpHeader (length: 2056 3456 > 49153) Payload Fragment [0:1472] ns3::EthernetTrailer (fcs=0)
- 3.00829 /NodeList/4/DeviceList/0/$ns3::CsmaNetDevice/TxQueue/Dequeue ns3::EthernetHeader ( length/type=0x800, source=00:00:00:00:00:06, destination=00:00:00:00:00:03) ns3::Ipv4Header (tos 0x0 DSCP Default ECN Not-ECT ttl 64 id 1 protocol 17 offset (bytes) 0 flags [MF] length: 1500 192.168.2.4 > 192.168.3.3) ns3::UdpHeader (length: 2056 3456 > 49153) Payload Fragment [0:1472] ns3::EthernetTrailer (fcs=0)
+ 3.00829 /NodeList/4/DeviceList/0/$ns3::CsmaNetDevice/TxQueue/Enqueue ns3::EthernetHeader ( length/type=0x800, source=00:00:00:00:00:06, destination=00:00:00:00:00:03) ns3::Ipv4Header (tos 0x0 DSCP Default ECN Not-ECT ttl 64 id 1 protocol 17 offset (bytes) 1480 flags [none] length: 596 192.168.2.4 > 192.168.3.3) Payload Fragment [1472:2048] ns3::EthernetTrailer (fcs=0)
- 3.00841 /NodeList/4/DeviceList/0/$ns3::CsmaNetDevice/TxQueue/Dequeue ns3::EthernetHeader ( length/type=0x800, source=00:00:00:00:00:06, destination=00:00:00:00:00:03) ns3::Ipv4Header (tos 0x0 DSCP Default ECN Not-ECT ttl 64 id 1 protocol 17 offset (bytes) 1480 flags [none] length: 596 192.168.2.4 > 192.168.3.3) Payload Fragment [1472:2048] ns3::EthernetTrailer (fcs=0)
r 3.00842 /NodeList/1/DeviceList/1/$ns3::CsmaNetDevice/MacRx ns3::EthernetHeader ( length/type=0x800, source=00:00:00:00:00:06, destination=00:00:00:00:00:03) ns3::Ipv4Header (tos 0x0 DSCP Default ECN Not-ECT ttl 64 id 1 protocol 17 offset (bytes) 0 flags [MF] length: 1500 192.168.2.4 > 192.168.3.3) ns3::UdpHeader (length: 2056 3456 > 49153) Payload Fragment [0:1472] ns3::EthernetTrailer (fcs=0)
r 3.00848 /NodeList/1/DeviceList/1/$ns3::CsmaNetDevice/MacRx ns3::EthernetHeader ( length/type=0x800, source=00:00:00:00:00:06, destination=00:00:00:00:00:03) ns3::Ipv4Header (tos 0x0 DSCP Default ECN Not-ECT ttl 64 id 1 protocol 17 offset (bytes) 1480 flags [none] length: 596 192.168.2.4 > 192.168.3.3) Payload Fragment [1472:2048] ns3::EthernetTrailer (fcs=0)
