+ 2.00955 /NodeList/0/DeviceList/0/$ns3::PointToPointNetDevice/TxQueue/Enqueue ns3::PppHeader (Point-to-Point Protocol: IP (0x0021)) ns3::Ipv4Header (tos 0x0 DSCP Default ECN Not-ECT ttl 63 id 0 protocol 17 offset (bytes) 0 flags [MF] length: 1500 192.168.3.3 > 192.168.2.4) ns3::UdpHeader (length: 2056 49153 > 3456) Payload Fragment [0:1472]
- 2.00955 /NodeList/0/DeviceList/0/$ns3::PointToPointNetDevice/TxQueue/Dequeue ns3::PppHeader (Point-to-Point Protocol: IP (0x0021)) ns3::Ipv4Header (tos 0x0 DSCP Default ECN Not-ECT ttl 63 id 0 protocol 17 offset (bytes) 0 flags [MF] length: 1500 192.168.3.3 > 192.168.2.4) ns3::UdpHeader (length: 2056 49153 > 3456) Payload Fragment [0:1472]
+ 2.00955 /NodeList/0/DeviceList/0/$ns3::PointToPointNetDevice/TxQueue/Enqueue ns3::PppHeader (Point-to-Point Protocol: IP (0x0021)) ns3::Ipv4Header (tos 0x0 DSCP Default ECN Not-ECT ttl 63 id 0 protocol 17 offset (bytes) 1480 flags [none] length: 596 192.168.3.3 > 192.168.2.4) Payload Fragment [1472:2048]
- 2.01195 /NodeList/0/DeviceList/0/$ns3::PointToPointNetDevice/TxQueue/Dequeue ns3::PppHeader (Point-to-Point Protocol: IP (0x0021)) ns3::Ipv4Header (tos 0x0 DSCP Default ECN Not-ECT ttl 63 id 0 protocol 17 offset (bytes) 1480 flags [none] length: 596 192.168.3.3 > 192.168.2.4) Payload Fragment [1472:2048]
r 2.01395 /NodeList/1/DeviceList/0/$ns3::PointToPointNetDevice/MacRx ns3::PppHeader (Point-to-Point Protocol: IP (0x0021)) ns3::Ipv4Header (tos 0x0 DSCP Default ECN Not-ECT ttl 63 id 0 protocol 17 offset (bytes) 0 flags [MF] length: 1500 192.168.3.3 > 192.168.2.4) ns3::UdpHeader (length: 2056 49153 > 3456) Payload Fragment [0:1472]
r 2.01491 /NodeList/1/DeviceList/0/$ns3::PointToPointNetDevice/MacRx ns3::PppHeader (Point-to-Point Protocol: IP (0x0021)) ns3::Ipv4Header (tos 0x0 DSCP Default ECN Not-ECT ttl 63 id 0 protocol 17 offset (bytes) 1480 flags [none] length: 596 192.168.3.3 > 192.168.2.4) Payload Fragment [1472:2048]
+ 2.02532 /NodeList/1/DeviceList/0/$ns3::PointToPointNetDevice/TxQueue/Enqueue ns3::PppHeader (Point-to-Point Protocol: IP (0x0021)) ns3::Ipv4Header (tos 0x0 DSCP Default ECN Not-ECT ttl 63 id 0 protocol 17 offset (bytes) 0 flags [MF] length: 1500 192.168.2.4 > 192.168.3.3) ns3::UdpHeader (length: 2056 3456 > 49153) Payload Fragment [0:1472]
- 2.02532 /NodeList/1/DeviceList/0/$ns3::PointToPointNetDevice/TxQueue/Dequeue ns3::PppHeader (Point-to-Point Protocol: IP (0x0021)) ns3::Ipv4Header (tos 0x0 DSCP Default ECN Not-ECT ttl 63 id 0 protocol 17 offset (bytes) 0 flags [MF] length: 1500 192.168.2.4 > 192.168.3.3) ns3::UdpHeader (length: 2056 3456 > 49153) Payload Fragment [0:1472]
+ 2.02538 /NodeList/1/DeviceList/0/$ns3::PointToPointNetDevice/TxQueue/Enqueue ns3::PppHeader (Point-to-Point Protocol: IP (0x0021)) ns3::Ipv4Header (tos 0x0 DSCP Default ECN Not-ECT ttl 63 id 0 protocol 17 offset (bytes) 1480 flags [none] length: 596 192.168.2.4 > 192.168.3.3) Payload Fragment [1472:2048]
- 2.02772 /NodeList/1/DeviceList/0/$ns3::PointToPointNetDevice/TxQueue/Dequeue ns3::PppHeader (Point-to-Point Protocol: IP (0x0021)) ns3::Ipv4Header (tos 0x0 DSCP Default ECN Not-ECT ttl 63 id 0 protocol 17 offset (bytes) 1480 flags [none] length: 596 192.168.2.4 > 192.168.3.3) Payload Fragment [1472:2048]
r 2.02972 /NodeList/0/DeviceList/0/$ns3::PointToPointNetDevice/MacRx ns3::PppHeader (Point-to-Point Protocol: IP (0x0021)) ns3::Ipv4Header (tos 0x0 DSCP Default ECN Not-ECT ttl 63 id 0 protocol 17 offset (bytes) 0 flags [MF] length: 1500 192.168.2.4 > 192.168.3.3) ns3::UdpHeader (length: 2056 3456 > 49153) Payload Fragment [0:1472]
r 2.03068 /NodeList/0/DeviceList/0/$ns3::PointToPointNetDevice/MacRx ns3::PppHeader (Point-to-Point Protocol: IP (0x0021)) ns3::Ipv4Header (tos 0x0 DSCP Default ECN Not-ECT ttl 63 id 0 protocol 17 offset (bytes) 1480 flags [none] length: 596 192.168.2.4 > 192.168.3.3) Payload Fragment [1472:2048]
+ 3.00287 /NodeList/0/DeviceList/0/$ns3::PointToPointNetDevice/TxQueue/Enqueue ns3::PppHeader (Point-to-Point Protocol: IP (0x0021)) ns3::Ipv4Header (tos 0x0 DSCP Default ECN Not-ECT ttl 63 id 1 protocol 17 offset (bytes) 0 flags [MF] length: 1500 192.168.3.3 > 192.168.2.4) ns3::UdpHeader (length: 2056 49153 > 3456) Payload Fragment [0:1472]
- 3.00287 /NodeList/0/DeviceList/0/$ns3::PointToPointNetDevice/TxQueue/Dequeue ns3::PppHeader (Point-to-Point Protocol: IP (0x0021)) ns3::Ipv4Header (tos 0x0 DSCP Default ECN Not-ECT ttl 63 id 1 protocol 17 offset (bytes) 0 flags [MF] length: 1500 192.168.3.3 > 192.168.2.4) ns3::UdpHeader (length: 2056 49153 > 3456) Payload Fragment [0:1472]
+ 3.00287 /NodeList/0/DeviceList/0/$ns3::PointToPointNetDevice/TxQueue/Enqueue ns3::PppHeader (Point-to-Point Protocol: IP (0x0021)) ns3::Ipv4Header (tos 0x0 DSCP Default ECN Not-ECT ttl 63 id 1 protocol 17 offset (bytes) 1480 flags [none] length: 596 192.168.3.3 > 192.168.2.4) Payload Fragment [1472:2048]
- 3.00528 /NodeList/0/DeviceList/0/$ns3::PointToPointNetDevice/TxQueue/Dequeue ns3::PppHeader (Point-to-Point Protocol: IP (0x0021)) ns3::Ipv4Header (tos 0x0 DSCP Default ECN Not-ECT ttl 63 id 1 protocol 17 offset (bytes) 1480 flags [none] length: 596 192.168.3.3 > 192.168.2.4) Payload Fragment [1472:2048]
r 3.00728 /NodeList/1/DeviceList/0/$ns3::PointToPointNetDevice/MacRx ns3::PppHeader (Point-to-Point Protocol: IP (0x0021)) ns3::Ipv4Header (tos 0x0 DSCP Default ECN Not-ECT ttl 63 id 1 protocol 17 offset (bytes) 0 flags [MF] length: 1500 192.168.3.3 > 192.168.2.4) ns3::UdpHeader (length: 2056 49153 > 3456) Payload Fragment [0:1472]
r 3.00823 /NodeList/1/DeviceList/0/$ns3::PointToPointNetDevice/MacRx ns3::PppHeader (Point-to-Point Protocol: IP (0x0021)) ns3::Ipv4Header (tos 0x0 DSCP Default ECN Not-ECT ttl 63 id 1 protocol 17 offset (bytes) 1480 flags [none] length: 596 192.168.3.3 > 192.168.2.4) Payload Fragment [1472:2048]
+ 3.00842 /NodeList/1/DeviceList/0/$ns3::PointToPointNetDevice/TxQueue/Enqueue ns3::PppHeader (Point-to-Point Protocol: IP (0x0021)) ns3::Ipv4Header (tos 0x0 DSCP Default ECN Not-ECT ttl 63 id 1 protocol 17 offset (bytes) 0 flags [MF] length: 1500 192.168.2.4 > 192.168.3.3) ns3::UdpHeader (length: 2056 3456 > 49153) Payload Fragment [0:1472]
- 3.00842 /NodeList/1/DeviceList/0/$ns3::PointToPointNetDevice/TxQueue/Dequeue ns3::PppHeader (Point-to-Point Protocol: IP (0x0021)) ns3::Ipv4Header (tos 0x0 DSCP Default ECN Not-ECT ttl 63 id 1 protocol 17 offset (bytes) 0 flags [MF] length: 1500 192.168.2.4 > 192.168.3.3) ns3::UdpHeader (length: 2056 3456 > 49153) Payload Fragment [0:1472]
+ 3.00848 /NodeList/1/DeviceList/0/$ns3::PointToPointNetDevice/TxQueue/Enqueue ns3::PppHeader (Point-to-Point Protocol: IP (0x0021)) ns3::Ipv4Header (tos 0x0 DSCP Default ECN Not-ECT ttl 63 id 1 protocol 17 offset (bytes) 1480 flags [none] length: 596 192.168.2.4 > 192.168.3.3) Payload Fragment [1472:2048]
- 3.01082 /NodeList/1/DeviceList/0/$ns3::PointToPointNetDevice/TxQueue/Dequeue ns3::PppHeader (Point-to-Point Protocol: IP (0x0021)) ns3::Ipv4Header (tos 0x0 DSCP Default ECN Not-ECT ttl 63 id 1 protocol 17 offset (bytes) 1480 flags [none] length: 596 192.168.2.4 > 192.168.3.3) Payload Fragment [1472:2048]
r 3.01282 /NodeList/0/DeviceList/0/$ns3::PointToPointNetDevice/MacRx ns3::PppHeader (Point-to-Point Protocol: IP (0x0021)) ns3::Ipv4Header (tos 0x0 DSCP Default ECN Not-ECT ttl 63 id 1 protocol 17 offset (bytes) 0 flags [MF] length: 1500 192.168.2.4 > 192.168.3.3) ns3::UdpHeader (length: 2056 3456 > 49153) Payload Fragment [0:1472]
r 3.01378 /NodeList/0/DeviceList/0/$ns3::PointToPointNetDevice/MacRx ns3::PppHeader (Point-to-Point Protocol: IP (0x0021)) ns3::Ipv4Header (tos 0x0 DSCP Default ECN Not-ECT ttl 63 id 1 protocol 17 offset (bytes) 1480 flags [none] length: 596 192.168.2.4 > 192.168.3.3) Payload Fragment [1472:2048]
