+ 2.0084 /NodeList/1/DeviceList/1/$ns3::CsmaNetDevice/TxQueue/Enqueue ns3::EthernetHeader ( length/type=0x806, source=00:00:00:00:00:03, destination=ff:ff:ff:ff:ff:ff) ns3::ArpHeader (request source mac: 00-06-00:00:00:00:00:03 source ipv4: 172.16.2.1 dest ipv4: 172.16.2.4) Payload (size=18) ns3::EthernetTrailer (fcs=0)
- 2.0084 /NodeList/1/DeviceList/1/$ns3::CsmaNetDevice/TxQueue/Dequeue ns3::EthernetHeader ( length/type=0x806, source=00:00:00:00:00:03, destination=ff:ff:ff:ff:ff:ff) ns3::ArpHeader (request source mac: 00-06-00:00:00:00:00:03 source ipv4: 172.16.2.1 dest ipv4: 172.16.2.4) Payload (size=18) ns3::EthernetTrailer (fcs=0)
r 2.00841 /NodeList/2/DeviceList/0/$ns3::CsmaNetDevice/MacRx ns3::EthernetHeader ( length/type=0x806, source=00:00:00:00:00:03, destination=ff:ff:ff:ff:ff:ff) ns3::ArpHeader (request source mac: 00-06-00:00:00:00:00:03 source ipv4: 172.16.2.1 dest ipv4: 172.16.2.4) Payload (size=18) ns3::EthernetTrailer (fcs=0)
r 2.00841 /NodeList/3/DeviceList/0/$ns3::CsmaNetDevice/MacRx ns3::EthernetHeader ( length/type=0x806, source=00:00:00:00:00:03, destination=ff:ff:ff:ff:ff:ff) ns3::ArpHeader (request source mac: 00-06-00:00:00:00:00:03 source ipv4: 172.16.2.1 dest ipv4: 172.16.2.4) Payload (size=18) ns3::EthernetTrailer (fcs=0)
r 2.00841 /NodeList/4/DeviceList/0/$ns3::CsmaNetDevice/MacRx ns3::EthernetHeader ( length/type=0x806, source=00:00:00:00:00:03, destination=ff:ff:ff:ff:ff:ff) ns3::ArpHeader (request source mac: 00-06-00:00:00:00:00:03 source ipv4: 172.16.2.1 dest ipv4: 172.16.2.4) Payload (size=18) ns3::EthernetTrailer (fcs=0)
+ 2.00841 /NodeList/4/DeviceList/0/$ns3::CsmaNetDevice/TxQueue/Enqueue ns3::EthernetHeader ( length/type=0x806, source=00:00:00:00:00:06, destination=00:00:00:00:00:03) ns3::ArpHeader (reply source mac: 00-06-00:00:00:00:00:06 source ipv4: 172.16.2.4 dest mac: 00-06-00:00:00:00:00:03 dest ipv4: 172.16.2.1) Payload (size=18) ns3::EthernetTrailer (fcs=0)
- 2.00841 /NodeList/4/DeviceList/0/$ns3::CsmaNetDevice/TxQueue/Dequeue ns3::EthernetHeader ( length/type=0x806, source=00:00:00:00:00:06, destination=00:00:00:00:00:03) ns3::ArpHeader (reply source mac: 00-06-00:00:00:00:00:06 source ipv4: 172.16.2.4 dest mac: 00-06-00:00:00:00:00:03 dest ipv4: 172.16.2.1) Payload (size=18) ns3::EthernetTrailer (fcs=0)
r 2.00843 /NodeList/1/DeviceList/1/$ns3::CsmaNetDevice/MacRx ns3::EthernetHeader ( length/type=0x806, source=00:00:00:00:00:06, destination=00:00:00:00:00:03) ns3::ArpHeader (reply source mac: 00-06-00:00:00:00:00:06 source ipv4: 172.16.2.4 dest mac: 00-06-00:00:00:00:00:03 dest ipv4: 172.16.2.1) Payload (size=18) ns3::EthernetTrailer (fcs=0)
+ 2.00843 /NodeList/1/DeviceList/1/$ns3::CsmaNetDevice/TxQueue/Enqueue ns3::EthernetHeader ( length/type=0x800, source=00:00:00:00:00:03, destination=00:00:00:00:00:06) ns3::Ipv4Header (tos 0x0 DSCP Default ECN Not-ECT ttl 63 id 0 protocol 17 offset (bytes) 0 flags [MF] length: 1500 172.16.1.1 > 172.16.2.4) ns3::UdpHeader (length: 2056 49153 > 1234) Payload Fragment [0:1472] ns3::EthernetTrailer (fcs=0)
- 2.00843 /NodeList/1/DeviceList/1/$ns3::CsmaNetDevice/TxQueue/Dequeue ns3::EthernetHeader ( length/type=0x800, source=00:00:00:00:00:03, destination=00:00:00:00:00:06) ns3::Ipv4Header (tos 0x0 DSCP Default ECN Not-ECT ttl 63 id 0 protocol 17 offset (bytes) 0 flags [MF] length: 1500 172.16.1.1 > 172.16.2.4) ns3::UdpHeader (length: 2056 49153 > 1234) Payload Fragment [0:1472] ns3::EthernetTrailer (fcs=0)
+ 2.00843 /NodeList/1/DeviceList/1/$ns3::CsmaNetDevice/TxQueue/Enqueue ns3::EthernetHeader ( length/type=0x800, source=00:00:00:00:00:03, destination=00:00:00:00:00:06) ns3::Ipv4Header (tos 0x0 DSCP Default ECN Not-ECT ttl 63 id 0 protocol 17 offset (bytes) 1480 flags [none] length: 596 172.16.1.1 > 172.16.2.4) Payload Fragment [1472:2048] ns3::EthernetTrailer (fcs=0)
- 2.00855 /NodeList/1/DeviceList/1/$ns3::CsmaNetDevice/TxQueue/Dequeue ns3::EthernetHeader ( length/type=0x800, source=00:00:00:00:00:03, destination=00:00:00:00:00:06) ns3::Ipv4Header (tos 0x0 DSCP Default ECN Not-ECT ttl 63 id 0 protocol 17 offset (bytes) 1480 flags [none] length: 596 172.16.1.1 > 172.16.2.4) Payload Fragment [1472:2048] ns3::EthernetTrailer (fcs=0)
r 2.00856 /NodeList/4/DeviceList/0/$ns3::CsmaNetDevice/MacRx ns3::EthernetHeader ( length/type=0x800, source=00:00:00:00:00:03, destination=00:00:00:00:00:06) ns3::Ipv4Header (tos 0x0 DSCP Default ECN Not-ECT ttl 63 id 0 protocol 17 offset (bytes) 0 flags [MF] length: 1500 172.16.1.1 > 172.16.2.4) ns3::UdpHeader (length: 2056 49153 > 1234) Payload Fragment [0:1472] ns3::EthernetTrailer (fcs=0)
r 2.00862 /NodeList/4/DeviceList/0/$ns3::CsmaNetDevice/MacRx ns3::EthernetHeader ( length/type=0x800, source=00:00:00:00:00:03, destination=00:00:00:00:00:06) ns3::Ipv4Header (tos 0x0 DSCP Default ECN Not-ECT ttl 63 id 0 protocol 17 offset (bytes) 1480 flags [none] length: 596 172.16.1.1 > 172.16.2.4) Payload Fragment [1472:2048] ns3::EthernetTrailer (fcs=0)
+ 2.01462 /NodeList/4/DeviceList/0/$ns3::CsmaNetDevice/TxQueue/Enqueue ns3::EthernetHeader ( length/type=0x806, source=00:00:00:00:00:06, destination=ff:ff:ff:ff:ff:ff) ns3::ArpHeader (request source mac: 00-06-00:00:00:00:00:06 source ipv4: 172.16.2.4 dest ipv4: 172.16.2.1) Payload (size=18) ns3::EthernetTrailer (fcs=0)
- 2.01462 /NodeList/4/DeviceList/0/$ns3::CsmaNetDevice/TxQueue/Dequeue ns3::EthernetHeader ( length/type=0x806, source=00:00:00:00:00:06, destination=ff:ff:ff:ff:ff:ff) ns3::ArpHeader (request source mac: 00-06-00:00:00:00:00:06 source ipv4: 172.16.2.4 dest ipv4: 172.16.2.1) Payload (size=18) ns3::EthernetTrailer (fcs=0)
r 2.01463 /NodeList/1/DeviceList/1/$ns3::CsmaNetDevice/MacRx ns3::EthernetHeader ( length/type=0x806, source=00:00:00:00:00:06, destination=ff:ff:ff:ff:ff:ff) ns3::ArpHeader (request source mac: 00-06-00:00:00:00:00:06 source ipv4: 172.16.2.4 dest ipv4: 172.16.2.1) Payload (size=18) ns3::EthernetTrailer (fcs=0)
+ 2.01463 /NodeList/1/DeviceList/1/$ns3::CsmaNetDevice/TxQueue/Enqueue ns3::EthernetHeader ( length/type=0x806, source=00:00:00:00:00:03, destination=00:00:00:00:00:06) ns3::ArpHeader (reply source mac: 00-06-00:00:00:00:00:03 source ipv4: 172.16.2.1 dest mac: 00-06-00:00:00:00:00:06 dest ipv4: 172.16.2.4) Payload (size=18) ns3::EthernetTrailer (fcs=0)
- 2.01463 /NodeList/1/DeviceList/1/$ns3::CsmaNetDevice/TxQueue/Dequeue ns3::EthernetHeader ( length/type=0x806, source=00:00:00:00:00:03, destination=00:00:00:00:00:06) ns3::ArpHeader (reply source mac: 00-06-00:00:00:00:00:03 source ipv4: 172.16.2.1 dest mac: 00-06-00:00:00:00:00:06 dest ipv4: 172.16.2.4) Payload (size=18) ns3::EthernetTrailer (fcs=0)
r 2.01463 /NodeList/2/DeviceList/0/$ns3::CsmaNetDevice/MacRx ns3::EthernetHeader ( length/type=0x806, source=00:00:00:00:00:06, destination=ff:ff:ff:ff:ff:ff) ns3::ArpHeader (request source mac: 00-06-00:00:00:00:00:06 source ipv4: 172.16.2.4 dest ipv4: 172.16.2.1) Payload (size=18) ns3::EthernetTrailer (fcs=0)
r 2.01463 /NodeList/3/DeviceList/0/$ns3::CsmaNetDevice/MacRx ns3::EthernetHeader ( length/type=0x806, source=00:00:00:00:00:06, destination=ff:ff:ff:ff:ff:ff) ns3::ArpHeader (request source mac: 00-06-00:00:00:00:00:06 source ipv4: 172.16.2.4 dest ipv4: 172.16.2.1) Payload (size=18) ns3::EthernetTrailer (fcs=0)
r 2.01464 /NodeList/4/DeviceList/0/$ns3::CsmaNetDevice/MacRx ns3::EthernetHeader ( length/type=0x806, source=00:00:00:00:00:03, destination=00:00:00:00:00:06) ns3::ArpHeader (reply source mac: 00-06-00:00:00:00:00:03 source ipv4: 172.16.2.1 dest mac: 00-06-00:00:00:00:00:06 dest ipv4: 172.16.2.4) Payload (size=18) ns3::EthernetTrailer (fcs=0)
+ 2.01464 /NodeList/4/DeviceList/0/$ns3::CsmaNetDevice/TxQueue/Enqueue ns3::EthernetHeader ( length/type=0x800, source=00:00:00:00:00:06, destination=00:00:00:00:00:03) ns3::Ipv4Header (tos 0x0 DSCP Default ECN Not-ECT ttl 64 id 0 protocol 17 offset (bytes) 0 flags [MF] length: 1500 172.16.2.4 > 172.16.1.1) ns3::UdpHeader (length: 2056 1234 > 49153) Payload Fragment [0:1472] ns3::EthernetTrailer (fcs=0)
- 2.01464 /NodeList/4/DeviceList/0/$ns3::CsmaNetDevice/TxQueue/Dequeue ns3::EthernetHeader ( length/type=0x800, source=00:00:00:00:00:06, destination=00:00:00:00:00:03) ns3::Ipv4Header (tos 0x0 DSCP Default ECN Not-ECT ttl 64 id 0 protocol 17 offset (bytes) 0 flags [MF] length: 1500 172.16.2.4 > 172.16.1.1) ns3::UdpHeader (length: 2056 1234 > 49153) Payload Fragment [0:1472] ns3::EthernetTrailer (fcs=0)
+ 2.01464 /NodeList/4/DeviceList/0/$ns3::CsmaNetDevice/TxQueue/Enqueue ns3::EthernetHeader ( length/type=0x800, source=00:00:00:00:00:06, destination=00:00:00:00:00:03) ns3::Ipv4Header (tos 0x0 DSCP Default ECN Not-ECT ttl 64 id 0 protocol 17 offset (bytes) 1480 flags [none] length: 596 172.16.2.4 > 172.16.1.1) Payload Fragment [1472:2048] ns3::EthernetTrailer (fcs=0)
- 2.01477 /NodeList/4/DeviceList/0/$ns3::CsmaNetDevice/TxQueue/Dequeue ns3::EthernetHeader ( length/type=0x800, source=00:00:00:00:00:06, destination=00:00:00:00:00:03) ns3::Ipv4Header (tos 0x0 DSCP Default ECN Not-ECT ttl 64 id 0 protocol 17 offset (bytes) 1480 flags [none] length: 596 172.16.2.4 > 172.16.1.1) Payload Fragment [1472:2048] ns3::EthernetTrailer (fcs=0)
r 2.01477 /NodeList/1/DeviceList/1/$ns3::CsmaNetDevice/MacRx ns3::EthernetHeader ( length/type=0x800, source=00:00:00:00:00:06, destination=00:00:00:00:00:03) ns3::Ipv4Header (tos 0x0 DSCP Default ECN Not-ECT ttl 64 id 0 protocol 17 offset (bytes) 0 flags [MF] length: 1500 172.16.2.4 > 172.16.1.1) ns3::UdpHeader (length: 2056 1234 > 49153) Payload Fragment [0:1472] ns3::EthernetTrailer (fcs=0)
r 2.01483 /NodeList/1/DeviceList/1/$ns3::CsmaNetDevice/MacRx ns3::EthernetHeader ( length/type=0x800, source=00:00:00:00:00:06, destination=00:00:00:00:00:03) ns3::Ipv4Header (tos 0x0 DSCP Default ECN Not-ECT ttl 64 id 0 protocol 17 offset (bytes) 1480 flags [none] length: 596 172.16.2.4 > 172.16.1.1) Payload Fragment [1472:2048] ns3::EthernetTrailer (fcs=0)
+ 3.0044 /NodeList/1/DeviceList/1/$ns3::CsmaNetDevice/TxQueue/Enqueue ns3::EthernetHeader ( length/type=0x800, source=00:00:00:00:00:03, destination=00:00:00:00:00:06) ns3::Ipv4Header (tos 0x0 DSCP Default ECN Not-ECT ttl 63 id 1 protocol 17 offset (bytes) 0 flags [MF] length: 1500 172.16.1.1 > 172.16.2.4) ns3::UdpHeader (length: 2056 49153 > 1234) Payload Fragment [0:1472] ns3::EthernetTrailer (fcs=0)
- 3.0044 /NodeList/1/DeviceList/1/$ns3::CsmaNetDevice/TxQueue/Dequeue ns3::EthernetHeader ( length/type=0x800, source=00:00:00:00:00:03, destination=00:00:00:00:00:06) ns3::Ipv4Header (tos 0x0 DSCP Default ECN Not-ECT ttl 63 id 1 protocol 17 offset (bytes) 0 flags [MF] length: 1500 172.16.1.1 > 172.16.2.4) ns3::UdpHeader (length: 2056 49153 > 1234) Payload Fragment [0:1472] ns3::EthernetTrailer (fcs=0)
r 3.00453 /NodeList/4/DeviceList/0/$ns3::CsmaNetDevice/MacRx ns3::EthernetHeader ( length/type=0x800, source=00:00:00:00:00:03, destination=00:00:00:00:00:06) ns3::Ipv4Header (tos 0x0 DSCP Default ECN Not-ECT ttl 63 id 1 protocol 17 offset (bytes) 0 flags [MF] length: 1500 172.16.1.1 > 172.16.2.4) ns3::UdpHeader (length: 2056 49153 > 1234) Payload Fragment [0:1472] ns3::EthernetTrailer (fcs=0)
+ 3.00536 /NodeList/1/DeviceList/1/$ns3::CsmaNetDevice/TxQueue/Enqueue ns3::EthernetHeader ( length/type=0x800, source=00:00:00:00:00:03, destination=00:00:00:00:00:06) ns3::Ipv4Header (tos 0x0 DSCP Default ECN Not-ECT ttl 63 id 1 protocol 17 offset (bytes) 1480 flags [none] length: 596 172.16.1.1 > 172.16.2.4) Payload Fragment [1472:2048] ns3::EthernetTrailer (fcs=0)
- 3.00536 /NodeList/1/DeviceList/1/$ns3::CsmaNetDevice/TxQueue/Dequeue ns3::EthernetHeader ( length/type=0x800, source=00:00:00:00:00:03, destination=00:00:00:00:00:06) ns3::Ipv4Header (tos 0x0 DSCP Default ECN Not-ECT ttl 63 id 1 protocol 17 offset (bytes) 1480 flags [none] length: 596 172.16.1.1 > 172.16.2.4) Payload Fragment [1472:2048] ns3::EthernetTrailer (fcs=0)
r 3.00542 /NodeList/4/DeviceList/0/$ns3::CsmaNetDevice/MacRx ns3::EthernetHeader ( length/type=0x800, source=00:00:00:00:00:03, destination=00:00:00:00:00:06) ns3::Ipv4Header (tos 0x0 DSCP Default ECN Not-ECT ttl 63 id 1 protocol 17 offset (bytes) 1480 flags [none] length: 596 172.16.1.1 > 172.16.2.4) Payload Fragment [1472:2048] ns3::EthernetTrailer (fcs=0)
+ 3.00542 /NodeList/4/DeviceList/0/$ns3::CsmaNetDevice/TxQueue/Enqueue ns3::EthernetHeader ( length/type=0x800, source=00:00:00:00:00:06, destination=00:00:00:00:00:03) ns3::Ipv4Header (tos 0x0 DSCP Default ECN Not-ECT ttl 64 id 1 protocol 17 offset (bytes) 0 flags [MF] length: 1500 172.16.2.4 > 172.16.1.1) ns3::UdpHeader (length: 2056 1234 > 49153) Payload Fragment [0:1472] ns3::EthernetTrailer (fcs=0)
- 3.00542 /NodeList/4/DeviceList/0/$ns3::CsmaNetDevice/TxQueue/Dequeue ns3::EthernetHeader ( length/type=0x800, source=00:00:00:00:00:06, destination=00:00:00:00:00:03) ns3::Ipv4Header (tos 0x0 DSCP Default ECN Not-ECT ttl 64 id 1 protocol 17 offset (bytes) 0 flags [MF] length: 1500 172.16.2.4 > 172.16.1.1) ns3::UdpHeader (length: 2056 1234 > 49153) Payload Fragment [0:1472] ns3::EthernetTrailer (fcs=0)
+ 3.00542 /NodeList/4/DeviceList/0/$ns3::CsmaNetDevice/TxQueue/Enqueue ns3::EthernetHeader ( length/type=0x800, source=00:00:00:00:00:06, destination=00:00:00:00:00:03) ns3::Ipv4Header (tos 0x0 DSCP Default ECN Not-ECT ttl 64 id 1 protocol 17 offset (bytes) 1480 flags [none] length: 596 172.16.2.4 > 172.16.1.1) Payload Fragment [1472:2048] ns3::EthernetTrailer (fcs=0)
- 3.00554 /NodeList/4/DeviceList/0/$ns3::CsmaNetDevice/TxQueue/Dequeue ns3::EthernetHeader ( length/type=0x800, source=00:00:00:00:00:06, destination=00:00:00:00:00:03) ns3::Ipv4Header (tos 0x0 DSCP Default ECN Not-ECT ttl 64 id 1 protocol 17 offset (bytes) 1480 flags [none] length: 596 172.16.2.4 > 172.16.1.1) Payload Fragment [1472:2048] ns3::EthernetTrailer (fcs=0)
r 3.00554 /NodeList/1/DeviceList/1/$ns3::CsmaNetDevice/MacRx ns3::EthernetHeader ( length/type=0x800, source=00:00:00:00:00:06, destination=00:00:00:00:00:03) ns3::Ipv4Header (tos 0x0 DSCP Default ECN Not-ECT ttl 64 id 1 protocol 17 offset (bytes) 0 flags [MF] length: 1500 172.16.2.4 > 172.16.1.1) ns3::UdpHeader (length: 2056 1234 > 49153) Payload Fragment [0:1472] ns3::EthernetTrailer (fcs=0)
r 3.00561 /NodeList/1/DeviceList/1/$ns3::CsmaNetDevice/MacRx ns3::EthernetHeader ( length/type=0x800, source=00:00:00:00:00:06, destination=00:00:00:00:00:03) ns3::Ipv4Header (tos 0x0 DSCP Default ECN Not-ECT ttl 64 id 1 protocol 17 offset (bytes) 1480 flags [none] length: 596 172.16.2.4 > 172.16.1.1) Payload Fragment [1472:2048] ns3::EthernetTrailer (fcs=0)
